[Molden Format]
[Molpro variables]
_NUMVAR=  795.0000000000000    
_AVOGAD= 0.6022136736000000E+24
_BOLTZ= 0.1380658000000000E-22
_CLIGHT=  29979245800.00000    
_EV2006= 0.3674930886769165E-01
_EV= 0.3674932534394180E-01
_ENULL= 0.8854187817000000E-11
_KJOULE= 0.3808798324128737E-03
_KJOULE/MOL= 0.3808798324128737E-03
_CM= 0.4556335267302901E-05
_CM-1= 0.4556335267302901E-05
_DEB2SI= 0.3335641000000000E-29
_AMU2AU=  1822.888390000000    
_KCAL= 0.1593601117815568E-02
_KCAL/MOL= 0.1593601117815568E-02
_KELVIN2006= 0.3166828861084835E-05
_KELVIN= 0.3166814820820034E-05
_JOULE= 0.4359748200000000E-17
_HERTZ2006= 0.1519829850815779E-15
_HERTZ= 0.1519829846011223E-15
_HZ2006= 0.1519829850815779E-15
_HZ= 0.1519829846011223E-15
_JPCAL=  4.184000000000000    
_PLANCK= 0.6626075540000000E-33
_TOA2006= 0.5291772490000000    
_TOA= 0.5291772090000000    
_TOANG2006= 0.5291772490000000    
_TOANG= 0.5291772090000000    
_TORAD= 0.1745329251994330E-01
_TOCM=  219474.6306700000    
_TODEBYE=  2.541580000000000    
_TOEV2006=  27.21139610000000    
_TOE= 0.4803242000000000E-09
_TOEV=  27.21138390000000    
_TOHERTZ2006=  6579683899900000.    
_TOHERTZ=  6579683920700000.    
_TOHZ2006=  6579683899900000.    
_TOHZ=  6579683920700000.    
_TOK2006=  315773.3000000000    
_TOK=  315774.7000000000    
_TOKCAL=  627.5096000000000    
_TOKELVIN2006=  315773.3000000000    
_TOKELVIN=  315774.7000000000    
_TOKJ=  2625.500000000000    
_TOKJOULE=  2625.500000000000    
_TOKG= 0.1660565586000000E-26
_ANG2006=  1.889725988578923    
_ANG=  1.889726131421507    
_ANGSTROM2006=  1.889725988578923    
_ANGSTROM=  1.889726131421507    
_RPAREF=  0.000000000000000    
_RPADISS=  0.000000000000000    
_IGNORE_UNDEF=  2.000000000000000    
_STRICTCHECK=  0.000000000000000    
_SEW_ONEEL=  0.000000000000000    
_CPPDONE=FALSE
_DKROLL_DONE=  0.000000000000000    
_FOCKDONE=TRUE
_GRADONE=FALSE
_HESSDONE=TRUE
_INTDONE=TRUE
_SCFDONE=TRUE
_MODUL_BLOCK=FALSE
_MODUL_CUDA=FALSE
_MODUL_SLATER=FALSE
_MODUL_MRCC=FALSE
_MODUL_NBO6=FALSE
_MODUL_NECI=TRUE
_MODUL_AIMS=TRUE
_MRCC_EXEC=
_FITC_AO_SAVED=  0.000000000000000    
_FITC_MO_SAVED=  0.000000000000000    
_SHARED_FS=TRUE
_LSTYP=SEWARD
_INTYP=INTS
_GEOMTYP=ZMAT
_GRADTYP=ALASKA
_DIRECT=FALSE
_DKHO= -1.000000000000000    
_SYNCM=  0.000000000000000    
_BASIS=6-31++G**
_ZORIENT=  1.000000000000000    
_NELEC=  16.00000000000000    
!SPIN=  0.000000000000000    
_OPTCONV= 0.1465506916532441E-03
_QSDSTEP=  0.000000000000000    
_QSDIRC=  0.000000000000000    
_PROGRAM=FREQ
_CPUSTEP=  0.000000000000000    
_SYSSTEP=  0.000000000000000    
_WALLSTEP=  0.000000000000000    
!DFMP2=  0.000000000000000    
!DFSCF=  0.000000000000000    
!SCSGRD=  0.000000000000000    
_BASINP=  610.0000000000000    
_CPUTOT=  28.82000000000000    
_CPUCCSD=  0.000000000000000    
_SYSCCSD=  0.000000000000000    
_WALLCCSD= 0.1000000163912773E-01
_CPUF12=  0.000000000000000    
_SYSF12=  0.000000000000000    
_WALLF12=  0.000000000000000    
_CPUF12B=  0.000000000000000    
_SYSF12B=  0.000000000000000    
_WALLF12B=  0.000000000000000    
_CPUTRANS= 0.3999999999999915E-01
_SYSTRANS=  0.000000000000000    
_WALLTRANS= 0.8000000007450581E-01
_DFTEXFAC=  1.000000000000000    
_DMX=-0.5589588985123418E-16
_DMY=-0.2507064889890886E-10
_DMZ=-0.5639565203718888E-11
_DMX_SCF=-0.3194217204813397E-15
_DMY_SCF=-0.2055238493498326E-10
_DMZ_SCF=-0.4011912330126322E-12
_FREQUENCIES= 0.3202828174492889E-04
_EHOMO=-0.3739803054824944    
_ELUMO= 0.4971353668181803E-01
_EMP2= -78.32067925151006    
_EMP2_SING=-0.1884492558205447    
_EMP2_TRIP=-0.8970776378860740E-01
_EMP2_SCS= -78.32447950302070    
_ECSING=-0.1884492558205446    
_ECTRIP=-0.8970776378860745E-01
_ENERGC= -78.32067925151006    
_ENERG_CC=  0.000000000000000    
_ENERG_CV=  0.000000000000000    
_ENERG_VV=-0.2781570196091521    
_ENERGR= -78.04252223190090    
_ENERGY= -78.32067925151006    
_ENUC=  33.29728061869270    
_FREQSTEP=  10.00000000000000    
_GRADENERG= -78.32067206805672    
_GRADEXFAC=  9999.000000000000    
_GRADMETHOD=  8.000000000000000    
_NMRMETHOD=  0.000000000000000    
_GRADRECORD=TRUE
_VIRIAL= 0.4323550772872660E-02
!GRID_FREEZE= -1.000000000000000    
_GTOTAL= -78.29046311527485    
_HTOTAL= -78.26490202869383    
_ITERATIONS=  1.000000000000000    
_LASTNELEC=  16.00000000000000    
_LASTSPIN=  0.000000000000000    
_LASTSYM=  1.000000000000000    
_MPP_PROG=  0.000000000000000    
_NPROC_MPP=  1.000000000000000    
_NPROC_MPPX=  1.000000000000000    
_NPROC_SMP=  1.000000000000000    
_NUMSTEP=  0.000000000000000    
_OPTCONVMX= 0.1088548554027957E-03
_OPTCONVRMS= 0.5982906933377825E-04
_OPTGRAD= 0.1664457939243714E-03
_OPTGRADMX= 0.1641620028278235E-03
_OPTGRADRMS= 0.1387048282703095E-04
_OPTSTEP=  3.000000000000000    
_ORBITAL=  2100.200000000000    
_PI=  3.141592653589793    
_ECDIAG=-0.6721896025043544E-01
_EPDIAG=-0.6721896025043544E-01
_SEIG_MIN= 0.2088536587063476E-03
_SEWPROP=TRUE
_STATUS=  1.000000000000000    
_SYSTOT=  1.820000000000000    
_T1DIAG=  0.000000000000000    
_VERSION=  2012001.000000000    
_WALLTOT=  63.11000000000000    
_ZPE= 0.5176120622616222E-01
_DATE=25-Feb-19
_LASTORB=RHF
_MACHINE=Linux-3.10.0-957.1.3.el7.x86_64/bluehive(x86_64) 64 bit serial version
_METHODC=MP2
_OUTPUT=/gpfs/fs2/scratch/amandal4/QD-onthefly/QED/C2H4-init/ethylene_freq.xml
_PGROUP=C1
_TIME=09:09:40
_ANSATZ=
_LIBMOL=/gpfs/fs2/scratch/amandal4/Molpro/Install/lib/
!VIBCNT=  0.000000000000000    
!RGHFCNT=  0.000000000000000    
!SURFREC=  0.000000000000000    
!POLYREC=  0.000000000000000    
!DIPREC=  0.000000000000000    
!VSCFREC=  0.000000000000000    
!VCIREC=  0.000000000000000    
!PVCIREC=  0.000000000000000    
!VMP2REC=  0.000000000000000    
!VMCSCFREC=  0.000000000000000    
!VMRCIREC=  0.000000000000000    
!VIBINFO=  0.000000000000000    
!GAREC=  0.000000000000000    
!SCFORB=  21002.00000000000    
!CIOCC=  8.000000000000000    
!CICORE=  2.000000000000000    
!CICLOS=  8.000000000000000    
!CIISTSYM=  1.000000000000000    
!CIISTMS2=  0.000000000000000    
!CIISTNEL=  12.00000000000000    
!NEWMOL=  0.000000000000000    
!NEWSYM=  0.000000000000000    
_SLFILES=slscratch
_NGSSTO=  9.000000000000000    
_SIN=SIN
_COS=COS
_TAN=TAN
_ACOS=ACOS
_ASIN=ASIN
_ATAN=ATAN
_COSH=COSH
_SINH=SINH
_TANH=TANH
_ABS=ABS
_MOD=MOD
_ERF=ERF
_REFC=REFC
_ERFC=ERFC
_HYPOT=HYPOT
_J0=J0
_J1=J1
_JN=JN
_GAMMA=GAMMA
_LGAMMA=LGAMMA
_Y0=Y0
_Y1=Y1
_YN=YN
_EXP=EXP
_LOG=LOG
_LOG10=LOG10
_SQRT=SQRT
_INT=INT
_NINT=NINT
_MAX=MAX
_MIN=MIN
_COSMO=  0.000000000000000    
_COSMOIT=  0.000000000000000    
_COSMOES=  0.000000000000000    
_COSMOEDS=  0.000000000000000    
_COSMOEC=  0.000000000000000    
_COSMOEDCORR=  0.000000000000000    
_FEPSI=  1.000000000000000    
_SL_IsMM=  0.000000000000000    
_SL_NSYM=  1.000000000000000    
_SL_System_BitSw=  0.000000000000000    
_SL_Unique_atoms=  0.000000000000000    
_SL_GRAD=  0.000000000000000    
_SL_MAXUPD_Hess=  5.000000000000000    
_SL_N_PRINT_COD=  5.000000000000000    
_SL_PRINT_CODES=  0.000000000000000    
_SL_BasType=  0.000000000000000    
_SL_Energy_Pred=  0.000000000000000    
_SL_New_Coords=  0.000000000000000    
_SL_Total_Nuclea=  0.000000000000000    
_SL_Highest_Mltp=  0.000000000000000    
_SL_Ref_Geom=  0.000000000000000    
_SL_Symmetry_ope=  1.000000000000000    
_SL_agrad=  0.000000000000000    
_SL_GrdMax=  0.000000000000000    
_SL_GrdNorm=  0.000000000000000    
_SL_GrdRMS=  0.000000000000000    
_SL_Hss_Q=  0.000000000000000    
_SL_Hss_X=  0.000000000000000    
_SL_BMxOld=  0.000000000000000    
_SL_KtB=  0.000000000000000    
!LATTICE= -1.000000000000000    
!NEWLATTICE=  0.000000000000000    
!LATGRAD_VAR=FALSE
!SEW_LATTICE=  1.000000000000000    
!LOCAL=  0.000000000000000    
!SAVEDOM= -1.000000000000000    
!RESTDOM= -1.000000000000000    
!SAVEDOM_HF= -1.000000000000000    
!RESTDOM_HF= -1.000000000000000    
!HESSREC=  5301.200000000000    
!FREQREC=  5401.200000000000    
!NMODREC=  5451.200000000000    
!GTASKS=  0.000000000000000    
!HTASKS=  5500.200000000000    
!THRCHG= 0.1000000000000000    
!DEBUG= -1.000000000000000    
!CFIT_CPHF=  0.000000000000000    
!RDOMAUX_CPHF=  5.000000000000000    
!THRAO_CPHF= 0.9999999999999999E-11
!THRMO_CPHF= 0.9999999999999999E-11
!THROV_CPHF= 0.1000000000000000E-11
!THRSW_CPHF= 0.1000000000000000E-09
!THRPROD_CPHF= 0.9999999999999999E-11
!THRAOPR_CPHF= 0.1000000000000000E-11
!CFIT_SCFGRD=  0.000000000000000    
!RDOMAUX_SCFGRD=  7.000000000000000    
!THRAO_SCFGRD= 0.9999999999999999E-11
!THRMO_SCFGRD= 0.9999999999999999E-11
!THROV_SCFGRD= 0.1000000000000000E-11
!THRSW_SCFGRD= 0.1000000000000000E-09
!THRPROD_SCFGRD= 0.9999999999999999E-11
!THRAOPR_SCFGRD= 0.1000000000000000E-11
!LOCFIT_SCF=  0.000000000000000    
!LOCFIT_MP2= -1.000000000000000    
_RIDOM=  0.000000000000000    
!CC2_METHOD=  0.000000000000000    
_BASIS2006=FALSE
_SVDDEL= -1.000000000000000    
_SVDDELA= -1.000000000000000    
_SVDDELP= -1.000000000000000    
_SVDDELF= -1.000000000000000    
_SVDDELS= -1.000000000000000    
_SVDDEL_ABS= -1.000000000000000    
_SVDDELA_ABS= -1.000000000000000    
_SVDDELP_ABS= -1.000000000000000    
_SVDDELF_ABS= -1.000000000000000    
_SVDDELS_ABS= -1.000000000000000    
_MAXBASIS=  0.000000000000000    
!OPT_CONICAL=  0.000000000000000    
!CLEARSP_JGRID=  0.000000000000000    
_4EXT_NDISKS=  1.000000000000000    
!ZMP=  0.000000000000000    
_MAXIT_ZMP=  500.0000000000000    
_MAXDIS_ZMP=  100.0000000000000    
_ACCU_ZMP=  14.00000000000000    
_SHIFTA_ZMP= -100.0000000000000    
!EMBEDFLAG=  1.000000000000000    
!EMBED=FALSE
!EMBED_F12=FALSE
!EMBEDNUC=  0.000000000000000    
_EMBEDENERGY=  0.000000000000000    
_KSPACETIME=  0.000000000000000    
_RSPACETIME=  0.000000000000000    
!EMBED_DFC=FALSE
!NUM_VOIDS=  0.000000000000000    
_IBODY=  0.000000000000000    
_EMBE_TOTAL=  0.000000000000000    
_EMBE_HF=  0.000000000000000    
_EMBE_CORR=  0.000000000000000    
!EDFT=  0.000000000000000    
_IFASTLATGRAD=  0.000000000000000    
_SINDEX=  0.000000000000000    
GEOMTYP=XYZ
GX1= 0.3102683570135878E-08
GY1=-0.2600299316146693E-11
GZ1= 0.6701369347257846    
GX2=-0.1302683318021405E-08
GY2=-0.1908476531823551E-11
GZ2=-0.6701369347264852    
GX3=-0.1723557082645988E-08
GY3= 0.9227854362916139    
GZ3= -1.234959834600921    
GX4=-0.9476443042898509E-08
GY4= 0.9227854362910521    
GZ4=  1.234959834599741    
GX5=-0.1587644170144188E-07
GY5=-0.9227854362897524    
GZ5=  1.234959834613665    
GX6= 0.4676441575568531E-08
GY6=-0.9227854362884039    
GZ6= -1.234959834611784    
[Atoms] Angs
C     1    6         0.0000000000       -0.0000000000        0.6701369347
C     2    6         0.0000000000       -0.0000000000       -0.6701369347
H     3    1         0.0000000000        0.9227854363       -1.2349598346
H     4    1         0.0000000000        0.9227854363        1.2349598346
H     5    1         0.0000000000       -0.9227854363        1.2349598346
H     6    1         0.0000000000       -0.9227854363       -1.2349598346
[GTO]
  1 0
 s    6  1.00
  0.3047524900D+04  0.1834737091D-02
  0.4573695200D+03  0.1403732293D-01
  0.1039486800D+03  0.6884262165D-01
  0.2921015500D+02  0.2321844388D+00
  0.9286663000D+01  0.4679413476D+00
  0.3163927000D+01  0.3623119882D+00
 s    3  1.00
  0.7868272300D+01 -0.1193324245D+00
  0.1881288500D+01 -0.1608541561D+00
  0.5442492600D+00  0.1143456443D+01
 s    1  1.00
  0.1687144800D+00  0.1000000000D+01
 s    1  1.00
  0.4380000000D-01  0.1000000000D+01
 p    3  1.00
  0.7868272300D+01  0.6899906693D-01
  0.1881288500D+01  0.3164239597D+00
  0.5442492600D+00  0.7443082892D+00
 p    1  1.00
  0.1687144800D+00  0.1000000000D+01
 p    1  1.00
  0.4380000000D-01  0.1000000000D+01
 d    1  1.00
  0.8000000000D+00  0.1000000000D+01
  
  2 0
 s    6  1.00
  0.3047524900D+04  0.1834737091D-02
  0.4573695200D+03  0.1403732293D-01
  0.1039486800D+03  0.6884262165D-01
  0.2921015500D+02  0.2321844388D+00
  0.9286663000D+01  0.4679413476D+00
  0.3163927000D+01  0.3623119882D+00
 s    3  1.00
  0.7868272300D+01 -0.1193324245D+00
  0.1881288500D+01 -0.1608541561D+00
  0.5442492600D+00  0.1143456443D+01
 s    1  1.00
  0.1687144800D+00  0.1000000000D+01
 s    1  1.00
  0.4380000000D-01  0.1000000000D+01
 p    3  1.00
  0.7868272300D+01  0.6899906693D-01
  0.1881288500D+01  0.3164239597D+00
  0.5442492600D+00  0.7443082892D+00
 p    1  1.00
  0.1687144800D+00  0.1000000000D+01
 p    1  1.00
  0.4380000000D-01  0.1000000000D+01
 d    1  1.00
  0.8000000000D+00  0.1000000000D+01
  
  3 0
 s    3  1.00
  0.1873113700D+02  0.3349460400D-01
  0.2825394400D+01  0.2347269500D+00
  0.6401216900D+00  0.8137573301D+00
 s    1  1.00
  0.1612777600D+00  0.1000000000D+01
 s    1  1.00
  0.3600000000D-01  0.1000000000D+01
 p    1  1.00
  0.1100000000D+01  0.1000000000D+01
  
  4 0
 s    3  1.00
  0.1873113700D+02  0.3349460400D-01
  0.2825394400D+01  0.2347269500D+00
  0.6401216900D+00  0.8137573301D+00
 s    1  1.00
  0.1612777600D+00  0.1000000000D+01
 s    1  1.00
  0.3600000000D-01  0.1000000000D+01
 p    1  1.00
  0.1100000000D+01  0.1000000000D+01
  
  5 0
 s    3  1.00
  0.1873113700D+02  0.3349460400D-01
  0.2825394400D+01  0.2347269500D+00
  0.6401216900D+00  0.8137573301D+00
 s    1  1.00
  0.1612777600D+00  0.1000000000D+01
 s    1  1.00
  0.3600000000D-01  0.1000000000D+01
 p    1  1.00
  0.1100000000D+01  0.1000000000D+01
  
  6 0
 s    3  1.00
  0.1873113700D+02  0.3349460400D-01
  0.2825394400D+01  0.2347269500D+00
  0.6401216900D+00  0.8137573301D+00
 s    1  1.00
  0.1612777600D+00  0.1000000000D+01
 s    1  1.00
  0.3600000000D-01  0.1000000000D+01
 p    1  1.00
  0.1100000000D+01  0.1000000000D+01
 
 
[MO]
 Sym=      1.1
 Ene=     -11.2382
 Spin= Alpha
 Occup=    2.000000
1 0.70423142049854
2 0.017439677651607
3 -0.007586869348468
4 0.005181212594665
5 0.000000000000000
6 0.000000000000007
7 0.000341117971703
8 -0.000000000000000
9 -0.000000000000254
10 -0.000484316089174
11 0.000000000000000
12 -0.000000000000714
13 0.000302252335370
14 -0.000380855823601
15 0.000267949726479
16 0.000112906097122
17 0.000000000000000
18 0.000000000000000
19 0.000000000000004
20 0.70423142042501
21 0.017439677649739
22 -0.007586869347481
23 0.005181212592090
24 -0.000000000000000
25 -0.000000000000058
26 -0.000341117971725
27 -0.000000000000000
28 0.000000000000153
29 0.000484316089167
30 -0.000000000000000
31 0.000000000000182
32 -0.000302252335704
33 -0.000380855823498
34 0.000267949726484
35 0.000112906097014
36 -0.000000000000000
37 0.000000000000000
38 0.000000000000029
39 -0.000218648465290
40 0.000863463981606
41 -0.001964823851616
42 -0.000000000000000
43 0.000339613582330
44 -0.000133868122908
45 -0.000218648465316
46 0.000863463981951
47 -0.001964823851226
48 -0.000000000000000
49 0.000339613582406
50 0.000133868122930
51 -0.000218648465295
52 0.000863463981389
53 -0.001964823852696
54 -0.000000000000000
55 -0.000339613582428
56 0.000133868122973
57 -0.000218648465296
58 0.000863463981623
59 -0.001964823851630
60 -0.000000000000000
61 -0.000339613582399
62 -0.000133868122971
 Sym=      2.1
 Ene=     -11.2367
 Spin= Alpha
 Occup=    2.000000
1 0.70452861869438
2 0.018160031836857
3 -0.012615242310865
4 0.018607956683713
5 0.000000000000000
6 -0.000000000000045
7 -0.000233920926202
8 -0.000000000000000
9 0.000000000001229
10 0.001947592242882
11 0.000000000000000
12 0.000000000007771
13 -0.003591677878892
14 -0.000820477503960
15 0.000196263814485
16 0.000624213689475
17 0.000000000000000
18 0.000000000000000
19 0.000000000000036
20 -0.70452861876789
21 -0.018160031838679
22 0.012615242311710
23 -0.018607956684350
24 -0.000000000000000
25 0.000000000000060
26 -0.000233920926172
27 -0.000000000000000
28 -0.000000000001055
29 0.001947592242803
30 -0.000000000000000
31 -0.000000000007601
32 -0.003591677878826
33 0.000820477503992
34 -0.000196263814506
35 -0.000624213689487
36 0.000000000000000
37 -0.000000000000000
38 -0.000000000000013
39 0.000190428646517
40 -0.000998075072938
41 0.001358664949811
42 -0.000000000000000
43 -0.000420492518968
44 0.000212910847894
45 -0.000190428646519
46 0.000998075072603
47 -0.001358664949762
48 -0.000000000000000
49 0.000420492518986
50 0.000212910847925
51 -0.000190428646615
52 0.000998075075484
53 -0.001358664936459
54 -0.000000000000000
55 -0.000420492518928
56 0.000212910847828
57 0.000190428646644
58 -0.000998075075361
59 0.001358664936909
60 -0.000000000000000
61 0.000420492518986
62 0.000212910847877
 Sym=      3.1
 Ene=      -1.0338
 Spin= Alpha
 Occup=    2.000000
1 -0.15692591856268
2 0.29790830914529
3 0.22667491249577
4 -0.018284282624194
5 0.000000000000000
6 -0.000000000000094
7 -0.10871254236148
8 0.000000000000000
9 -0.000000000017549
10 -0.009516143238669
11 -0.000000000000000
12 -0.000000000065643
13 -0.004606038425402
14 -0.012198978684524
15 -0.003063529301039
16 0.015262507985563
17 0.000000000000000
18 -0.000000000000000
19 -0.000000000000464
20 -0.15692591856288
21 0.29790830914578
22 0.22667491249435
23 -0.018284282657540
24 0.000000000000000
25 -0.000000000000600
26 0.10871254236123
27 0.000000000000000
28 0.000000000011060
29 0.009516143240532
30 -0.000000000000000
31 0.000000000055137
32 0.004606038424964
33 -0.012198978684410
34 -0.003063529300968
35 0.015262507985378
36 -0.000000000000000
37 0.000000000000000
38 -0.000000000000018
39 0.085299166731497
40 0.022647961245469
41 0.007989060841223
42 -0.000000000000000
43 -0.007346288799019
44 0.005658288080545
45 0.085299166731417
46 0.022647961268744
47 0.007989060931202
48 0.000000000000000
49 -0.007346288799358
50 -0.005658288081312
51 0.085299166730910
52 0.022647961231632
53 0.007989060819807
54 0.000000000000000
55 0.007346288798138
56 -0.005658288080414
57 0.085299166731256
58 0.022647961263329
59 0.007989060926213
60 -0.000000000000000
61 0.007346288799044
62 0.005658288080830
 Sym=      4.1
 Ene=      -0.7953
 Spin= Alpha
 Occup=    2.000000
1 -0.12054091119533
2 0.23572483039967
3 0.23088239849187
4 -0.16711474897233
5 0.000000000000000
6 0.000000000000238
7 0.16258068248528
8 -0.000000000000000
9 -0.000000000016791
10 0.058829408696988
11 -0.000000000000000
12 -0.000000000054552
13 0.028980190070215
14 -0.009905991743206
15 0.014261828399501
16 -0.004355836656295
17 0.000000000000000
18 0.000000000000000
19 -0.000000000000184
20 0.12054091119507
21 -0.23572483039943
22 -0.23088239849182
23 0.16711474896269
24 0.000000000000000
25 -0.000000000000173
26 0.16258068248525
27 0.000000000000000
28 0.000000000019554
29 0.058829408697422
30 -0.000000000000000
31 0.000000000071479
32 0.028980190072303
33 0.009905991743273
34 -0.014261828399736
35 0.004355836656463
36 0.000000000000000
37 -0.000000000000000
38 -0.000000000000346
39 -0.14808545881940
40 -0.079523415176743
41 -0.016058912279208
42 0.000000000000000
43 0.010370373663414
44 -0.004652493433223
45 0.14808545881963
46 0.079523415171731
47 0.016058912259712
48 0.000000000000000
49 -0.010370373663280
50 -0.004652493433027
51 0.14808545881983
52 0.079523415146030
53 0.016058912180564
54 0.000000000000000
55 0.010370373662776
56 -0.004652493432247
57 -0.14808545881988
58 -0.079523415135994
59 -0.016058912153124
60 0.000000000000000
61 -0.010370373662476
62 -0.004652493431893
 Sym=      5.1
 Ene=      -0.6437
 Spin= Alpha
 Occup=    2.000000
1 0.000000000000250
2 -0.000000000001149
3 -0.000000000001709
4 -0.000000000111315
5 0.000000000000000
6 0.31699279405348
7 0.000000000002049
8 0.000000000000000
9 0.12441821886242
10 -0.000000000005277
11 -0.000000000000000
12 -0.008840498497465
13 0.000000000004032
14 0.000000000000421
15 -0.000000000000659
16 0.000000000000238
17 0.000000000000000
18 0.000000000000000
19 0.007775740631305
20 0.000000000000209
21 -0.000000000001208
22 -0.000000000001629
23 0.000000000027317
24 -0.000000000000000
25 0.31699279405650
26 -0.000000000002917
27 -0.000000000000000
28 0.12441821883947
29 -0.000000000004959
30 0.000000000000000
31 -0.008840498593173
32 0.000000000026395
33 0.000000000000160
34 -0.000000000000150
35 -0.000000000000010
36 0.000000000000000
37 0.000000000000000
38 -0.007775740630816
39 0.15928016914850
40 0.11307387423599
41 0.017802830423505
42 0.000000000000000
43 -0.006351012542768
44 0.006467074600667
45 0.15928016914707
46 0.11307387422251
47 0.017802830351795
48 0.000000000000000
49 -0.006351012542760
50 -0.006467074600181
51 -0.15928016914483
52 -0.11307387419486
53 -0.017802830310308
54 0.000000000000000
55 -0.006351012541521
56 0.006467074599472
57 -0.15928016914659
58 -0.11307387422969
59 -0.017802830393299
60 0.000000000000000
61 -0.006351012542898
62 -0.006467074600054
 Sym=      6.1
 Ene=      -0.5873
 Spin= Alpha
 Occup=    2.000000
1 0.010251153030624
2 -0.024722316687615
3 0.015159724464015
4 -0.012389689840560
5 0.000000000000000
6 -0.000000000003026
7 0.40633526433506
8 -0.000000000000000
9 0.000000000035818
10 0.14813136670621
11 0.000000000000000
12 0.000000000141542
13 0.009521524941836
14 -0.003671289452039
15 0.020348812764220
16 -0.016677523312182
17 0.000000000000000
18 0.000000000000000
19 0.000000000000008
20 0.010251153030041
21 -0.024722316688191
22 0.015159724477349
23 -0.012389689769658
24 0.000000000000000
25 0.000000000000025
26 -0.40633526433519
27 -0.000000000000000
28 -0.000000000040242
29 -0.14813136670596
30 0.000000000000000
31 -0.000000000136611
32 -0.009521524929336
33 -0.003671289452420
34 0.020348812764774
35 -0.016677523312354
36 0.000000000000000
37 -0.000000000000000
38 0.000000000000624
39 0.12596086325986
40 0.10208918750084
41 0.008028149936300
42 -0.000000000000000
43 -0.007196575225828
44 -0.001715544220549
45 0.12596086325771
46 0.10208918743731
47 0.008028149719944
48 0.000000000000000
49 -0.007196575224877
50 0.001715544222230
51 0.12596086326441
52 0.10208918750677
53 0.008028149952200
54 0.000000000000000
55 0.007196575226510
56 0.001715544220152
57 0.12596086326269
58 0.10208918742750
59 0.008028149725867
60 -0.000000000000000
61 0.007196575224729
62 -0.001715544222606
 Sym=      7.1
 Ene=      -0.5095
 Spin= Alpha
 Occup=    2.000000
1 0.000000000000588
2 0.000000000002926
3 -0.000000000032667
4 0.000000000844759
5 -0.000000000000000
6 0.30199331161505
7 0.000000000000549
8 0.000000000000000
9 0.18918447715364
10 0.000000000013496
11 -0.000000000000000
12 -0.023400004589341
13 -0.000000000280721
14 0.000000000000775
15 -0.000000000000229
16 -0.000000000000546
17 0.000000000000000
18 0.000000000000000
19 0.031201101090716
20 -0.000000000000291
21 -0.000000000004046
22 0.000000000022871
23 -0.000000000887823
24 -0.000000000000000
25 -0.30199331161270
26 -0.000000000000787
27 -0.000000000000000
28 -0.18918447715274
29 0.000000000019640
30 0.000000000000000
31 0.023400004591784
32 -0.000000000269702
33 -0.000000000000361
34 0.000000000000160
35 0.000000000000201
36 -0.000000000000000
37 -0.000000000000000
38 0.031201101090407
39 -0.19061746938315
40 -0.15627799549470
41 -0.043723240706067
42 -0.000000000000000
43 0.005720003914219
44 -0.004968465850275
45 0.19061746938467
46 0.15627799550982
47 0.043723240720125
48 0.000000000000000
49 -0.005720003914896
50 -0.004968465850397
51 -0.19061746938144
52 -0.15627799550843
53 -0.043723240619561
54 -0.000000000000000
55 -0.005720003913362
56 0.004968465849690
57 0.19061746938072
58 0.15627799552233
59 0.043723240640770
60 -0.000000000000000
61 0.005720003914244
62 0.004968465849534
 Sym=      8.1
 Ene=      -0.3740
 Spin= Alpha
 Occup=    2.000000
1 0.000000000000000
2 0.000000000000001
3 -0.000000000000002
4 -0.000000000000009
5 0.37278670699980
6 -0.000000000000000
7 0.000000000000000
8 0.27579184555729
9 0.000000000000001
10 -0.000000000000001
11 0.050585899976172
12 -0.000000000000004
13 0.000000000000002
14 0.000000000000000
15 -0.000000000000000
16 0.000000000000000
17 -0.000000000000225
18 -0.026171587137444
19 0.000000000000000
20 -0.000000000000000
21 0.000000000000001
22 -0.000000000000001
23 0.000000000000011
24 0.37278670699996
25 0.000000000000000
26 -0.000000000000000
27 0.27579184555743
28 -0.000000000000001
29 -0.000000000000000
30 0.050585899976355
31 0.000000000000003
32 0.000000000000003
33 0.000000000000000
34 -0.000000000000000
35 -0.000000000000000
36 -0.000000000000071
37 0.026171587137425
38 -0.000000000000000
39 -0.000000000000000
40 -0.000000000000000
41 -0.000000000000003
42 0.008846159417910
43 -0.000000000000000
44 -0.000000000000000
45 -0.000000000000000
46 0.000000000000001
47 0.000000000000004
48 0.008846159417826
49 -0.000000000000000
50 -0.000000000000000
51 -0.000000000000000
52 0.000000000000001
53 -0.000000000000004
54 0.008846159417733
55 0.000000000000000
56 0.000000000000000
57 -0.000000000000000
58 -0.000000000000000
59 0.000000000000001
60 0.008846159417744
61 -0.000000000000000
62 0.000000000000000
 Sym=      9.1
 Ene=       0.0497
 Spin= Alpha
 Occup=    0.000000
1 0.016670323473824
2 -0.072445377463684
3 0.036903955793047
4 -2.14652542112618
5 0.000000000000000
6 0.000000000054460
7 -0.055937970610891
8 0.000000000000000
9 0.000000000250425
10 -0.033701680803749
11 0.000000000000000
12 0.000000004000049
13 -0.42508646002688
14 0.001310149790260
15 0.000720883884562
16 -0.002031033674823
17 -0.000000000000000
18 -0.000000000000000
19 -0.000000000000522
20 0.016670323476501
21 -0.072445377475431
22 0.036903955770754
23 -2.14652542218212
24 0.000000000000000
25 0.000000000048120
26 0.055937970615974
27 0.000000000000000
28 -0.000000000147520
29 0.033701680767515
30 -0.000000000000000
31 -0.000000001658190
32 0.42508646014185
33 0.001310149790866
34 0.000720883885005
35 -0.002031033675871
36 -0.000000000000000
37 0.000000000000000
38 0.000000000005082
39 -0.011985964661396
40 -0.000406605360303
41 1.31694984401336
42 0.000000000000000
43 0.005394671192305
44 -0.000637265721794
45 -0.011985964647106
46 -0.000406605909654
47 1.31694983759256
48 0.000000000000000
49 0.005394671196558
50 0.000637265728877
51 -0.011985964672086
52 -0.000406605064039
53 1.31694984810591
54 0.000000000000000
55 -0.005394671190381
56 0.000637265721022
57 -0.011985964662454
58 -0.000406605576732
59 1.31694984277782
60 0.000000000000000
61 -0.005394671196094
62 -0.000637265727416
 Sym=     10.1
 Ene=       0.0623
 Spin= Alpha
 Occup=    0.000000
1 -0.020535044888784
2 0.061971385225789
3 0.10938426422941
4 4.53465210333430
5 -0.000000000000000
6 0.000000000137607
7 0.028792143727297
8 0.000000000000000
9 -0.000000000213697
10 -0.090879345315072
11 0.000000000000001
12 0.000000000385290
13 0.20257856888084
14 -0.000607910094063
15 0.000619280952657
16 -0.000011370858594
17 -0.000000000000000
18 -0.000000000000000
19 -0.000000000014884
20 0.020535044884894
21 -0.061971385213250
22 -0.10938426422119
23 -4.53465210305643
24 0.000000000000000
25 0.000000000146045
26 0.028792143713801
27 -0.000000000000001
28 0.000000000226871
29 -0.090879345329671
30 0.000000000000001
31 0.000000004244047
32 0.20257856887507
33 0.000607910093449
34 -0.000619280952384
35 0.000011370858935
36 0.000000000000000
37 -0.000000000000000
38 0.000000000007127
39 -0.009646056014054
40 0.036030561156687
41 2.20445982952926
42 -0.000000000000000
43 0.003556515558714
44 -0.002242339263641
45 0.009646056052015
46 -0.036030561262777
47 -2.20445984004953
48 -0.000000000000000
49 -0.003556515573054
50 -0.002242339275109
51 0.009646056031389
52 -0.036030561664401
53 -2.20445983358051
54 -0.000000000000000
55 0.003556515556768
56 -0.002242339256523
57 -0.009646056064860
58 0.036030561781219
59 2.20445984370344
60 0.000000000000000
61 -0.003556515569322
62 -0.002242339267787
 Sym=     11.1
 Ene=       0.0642
 Spin= Alpha
 Occup=    0.000000
1 -0.000000000024410
2 0.000000000055100
3 0.000000000258553
4 -0.000000005227999
5 0.000000000000000
6 -0.073577353273200
7 0.000000000016517
8 0.000000000000000
9 -0.002206250945867
10 -0.000000000245187
11 0.000000000000002
12 -1.13919650001085
13 0.000000004593150
14 0.000000000000693
15 -0.000000000001082
16 0.000000000000388
17 0.000000000000000
18 0.000000000000000
19 0.005737181884988
20 0.000000000057681
21 -0.000000000163913
22 -0.000000000278460
23 0.000000003649824
24 -0.000000000000000
25 -0.073577353289213
26 0.000000000104449
27 -0.000000000000000
28 -0.002206250929056
29 -0.000000000193984
30 -0.000000000000002
31 -1.13919650169254
32 0.000000004620698
33 0.000000000003492
34 0.000000000000658
35 -0.000000000004150
36 0.000000000000000
37 0.000000000000000
38 -0.005737181884280
39 -0.008872855610837
40 0.011781060451093
41 2.59783350593017
42 -0.000000000000000
43 0.003767842295221
44 -0.003047290748687
45 -0.008872855575919
46 0.011781060494709
47 2.59783349390153
48 0.000000000000000
49 0.003767842277002
50 0.003047290739587
51 0.008872855590911
52 -0.011781060625146
53 -2.59783350244336
54 0.000000000000000
55 0.003767842281362
56 -0.003047290745609
57 0.008872855573250
58 -0.011781060719629
59 -2.59783349477024
60 -0.000000000000000
61 0.003767842264313
62 0.003047290739690
 Sym=     12.1
 Ene=       0.0849
 Spin= Alpha
 Occup=    0.000000
1 -0.000000000006314
2 0.000000000098270
3 -0.000000000629086
4 0.000000036317071
5 0.000000000000001
6 0.044896466694552
7 0.000000000013716
8 0.000000000000001
9 0.14966777027917
10 0.000000000445302
11 0.000000000000009
12 4.85930643498019
13 -0.000000012436714
14 0.000000000009319
15 0.000000000013414
16 -0.000000000022733
17 -0.000000000000000
18 0.000000000000000
19 0.004667331686615
20 -0.000000000011157
21 -0.000000000049833
22 0.000000000605587
23 -0.000000036581043
24 -0.000000000000001
25 -0.044896466667387
26 -0.000000000017422
27 -0.000000000000001
28 -0.14966777028776
29 0.000000000488425
30 -0.000000000000008
31 -4.85930643477495
32 -0.000000012256107
33 -0.000000000011712
34 -0.000000000014460
35 0.000000000026172
36 0.000000000000000
37 0.000000000000000
38 0.004667331689801
39 -0.020610966893712
40 0.20863686362870
41 6.27183781474657
42 -0.000000000000000
43 -0.000186347351980
44 0.000330054828873
45 0.020610966901043
46 -0.20863686328805
47 -6.27183781559521
48 0.000000000000000
49 0.000186347341901
50 0.000330054823750
51 -0.020610966857090